<?xml version="1.0" encoding="UTF-8"?>

<!-- generated on 2026-07-19T11:03:24.889369+08:00 by Eclipse SUMO sumo 1.27.1
<sumoConfiguration xmlns:xsi="http://www.w3.org/2001/XMLSchema-instance" xsi:noNamespaceSchemaLocation="http://sumo.dlr.de/xsd/sumoConfiguration.xsd">

    <input>
        <net-file value="intersection_data\12\sumo工程\demo_12.net.xml"/>
        <route-files value="intersection_data\12\sumo工程\demo_12.rou.xml"/>
    </input>

    <output>
        <fcd-output value="intersection_data\12\sumo工程\traj.xml"/>
        <queue-output value="intersection_data\12\sumo工程\queues.xml"/>
        <summary-output value="intersection_data\12\sumo工程\stats.xml"/>
        <tripinfo-output value="runs/baseline_12.xml"/>
    </output>

    <time>
        <begin value="0"/>
        <end value="3600"/>
        <step-length value="0.1"/>
    </time>

    <processing>
        <ignore-route-errors value="true"/>
    </processing>

    <report>
        <verbose value="true"/>
        <no-step-log value="true"/>
    </report>

    <traci_server>
        <remote-port value="52322"/>
    </traci_server>

</sumoConfiguration>
-->

<queue-export xmlns:xsi="http://www.w3.org/2001/XMLSchema-instance" xsi:noNamespaceSchemaLocation="http://sumo.dlr.de/xsd/queue_file.xsd">
    <data timestep="0.00">
        <lanes/>
    </data>
    <data timestep="0.10">
        <lanes/>
    </data>
    <data timestep="0.20">
        <lanes/>
    </data>
    <data timestep="0.30">
        <lanes/>
    </data>
    <data timestep="0.40">
        <lanes/>
    </data>
    <data timestep="0.50">
        <lanes/>
    </data>
    <data timestep="0.60">
        <lanes/>
    </data>
    <data timestep="0.70">
        <lanes/>
    </data>
    <data timestep="0.80">
        <lanes/>
    </data>
    <data timestep="0.90">
        <lanes/>
    </data>
    <data timestep="1.00">
        <lanes/>
    </data>
    <data timestep="1.10">
        <lanes/>
    </data>
    <data timestep="1.20">
        <lanes/>
    </data>
    <data timestep="1.30">
        <lanes/>
    </data>
    <data timestep="1.40">
        <lanes/>
    </data>
    <data timestep="1.50">
        <lanes/>
    </data>
    <data timestep="1.60">
        <lanes/>
    </data>
    <data timestep="1.70">
        <lanes/>
    </data>
    <data timestep="1.80">
        <lanes/>
    </data>
    <data timestep="1.90">
        <lanes/>
    </data>
    <data timestep="2.00">
        <lanes/>
    </data>
    <data timestep="2.10">
        <lanes/>
    </data>
    <data timestep="2.20">
        <lanes/>
    </data>
    <data timestep="2.30">
        <lanes/>
    </data>
    <data timestep="2.40">
        <lanes/>
    </data>
    <data timestep="2.50">
        <lanes/>
    </data>
    <data timestep="2.60">
        <lanes/>
    </data>
    <data timestep="2.70">
        <lanes/>
    </data>
    <data timestep="2.80">
        <lanes/>
    </data>
    <data timestep="2.90">
        <lanes/>
    </data>
    <data timestep="3.00">
        <lanes/>
    </data>
    <data timestep="3.10">
        <lanes/>
    </data>
    <data timestep="3.20">
        <lanes/>
    </data>
    <data timestep="3.30">
        <lanes/>
    </data>
    <data timestep="3.40">
        <lanes/>
    </data>
    <data timestep="3.50">
        <lanes/>
    </data>
    <data timestep="3.60">
        <lanes/>
    </data>
    <data timestep="3.70">
        <lanes/>
    </data>
    <data timestep="3.80">
        <lanes/>
    </data>
    <data timestep="3.90">
        <lanes/>
    </data>
    <data timestep="4.00">
        <lanes/>
    </data>
    <data timestep="4.10">
        <lanes/>
    </data>
    <data timestep="4.20">
        <lanes/>
    </data>
    <data timestep="4.30">
        <lanes/>
    </data>
    <data timestep="4.40">
        <lanes/>
    </data>
    <data timestep="4.50">
        <lanes/>
    </data>
    <data timestep="4.60">
        <lanes/>
    </data>
    <data timestep="4.70">
        <lanes/>
    </data>
    <data timestep="4.80">
        <lanes/>
    </data>
    <data timestep="4.90">
        <lanes/>
    </data>
    <data timestep="5.00">
        <lanes/>
    </data>
    <data timestep="5.10">
        <lanes/>
    </data>
    <data timestep="5.20">
        <lanes/>
    </data>
    <data timestep="5.30">
        <lanes/>
    </data>
    <data timestep="5.40">
        <lanes/>
    </data>
    <data timestep="5.50">
        <lanes/>
    </data>
    <data timestep="5.60">
        <lanes/>
    </data>
    <data timestep="5.70">
        <lanes/>
    </data>
    <data timestep="5.80">
        <lanes/>
    </data>
    <data timestep="5.90">
        <lanes/>
    </data>
    <data timestep="6.00">
        <lanes/>
    </data>
    <data timestep="6.10">
        <lanes/>
    </data>
    <data timestep="6.20">
        <lanes/>
    </data>
    <data timestep="6.30">
        <lanes/>
    </data>
    <data timestep="6.40">
        <lanes/>
    </data>
    <data timestep="6.50">
        <lanes/>
    </data>
    <data timestep="6.60">
        <lanes/>
    </data>
    <data timestep="6.70">
        <lanes/>
    </data>
    <data timestep="6.80">
        <lanes/>
    </data>
    <data timestep="6.90">
        <lanes/>
    </data>
    <data timestep="7.00">
        <lanes/>
    </data>
    <data timestep="7.10">
        <lanes/>
    </data>
    <data timestep="7.20">
        <lanes/>
    </data>
    <data timestep="7.30">
        <lanes/>
    </data>
    <data timestep="7.40">
        <lanes/>
    </data>
    <data timestep="7.50">
        <lanes/>
    </data>
    <data timestep="7.60">
        <lanes/>
    </data>
    <data timestep="7.70">
        <lanes/>
    </data>
    <data timestep="7.80">
        <lanes/>
    </data>
    <data timestep="7.90">
        <lanes/>
    </data>
    <data timestep="8.00">
        <lanes/>
    </data>
    <data timestep="8.10">
        <lanes/>
    </data>
    <data timestep="8.20">
        <lanes/>
    </data>
    <data timestep="8.30">
        <lanes/>
    </data>
    <data timestep="8.40">
        <lanes/>
    </data>
    <data timestep="8.50">
        <lanes/>
    </data>
    <data timestep="8.60">
        <lanes/>
    </data>
    <data timestep="8.70">
        <lanes/>
    </data>
    <data timestep="8.80">
        <lanes/>
    </data>
    <data timestep="8.90">
        <lanes/>
    </data>
    <data timestep="9.00">
        <lanes/>
    </data>
    <data timestep="9.10">
        <lanes/>
    </data>
    <data timestep="9.20">
        <lanes/>
    </data>
    <data timestep="9.30">
        <lanes/>
    </data>
    <data timestep="9.40">
        <lanes/>
    </data>
    <data timestep="9.50">
        <lanes/>
    </data>
    <data timestep="9.60">
        <lanes/>
    </data>
    <data timestep="9.70">
        <lanes/>
    </data>
    <data timestep="9.80">
        <lanes/>
    </data>
    <data timestep="9.90">
        <lanes/>
    </data>
    <data timestep="10.00">
        <lanes/>
    </data>
    <data timestep="10.10">
        <lanes/>
    </data>
    <data timestep="10.20">
        <lanes/>
    </data>
    <data timestep="10.30">
        <lanes/>
    </data>
    <data timestep="10.40">
        <lanes/>
    </data>
    <data timestep="10.50">
        <lanes/>
    </data>
    <data timestep="10.60">
        <lanes/>
    </data>
    <data timestep="10.70">
        <lanes/>
    </data>
    <data timestep="10.80">
        <lanes/>
    </data>
    <data timestep="10.90">
        <lanes/>
    </data>
    <data timestep="11.00">
        <lanes/>
    </data>
    <data timestep="11.10">
        <lanes/>
    </data>
    <data timestep="11.20">
        <lanes/>
    </data>
    <data timestep="11.30">
        <lanes/>
    </data>
    <data timestep="11.40">
        <lanes/>
    </data>
    <data timestep="11.50">
        <lanes/>
    </data>
    <data timestep="11.60">
        <lanes/>
    </data>
    <data timestep="11.70">
        <lanes/>
    </data>
    <data timestep="11.80">
        <lanes/>
    </data>
    <data timestep="11.90">
        <lanes/>
    </data>
    <data timestep="12.00">
        <lanes/>
    </data>
    <data timestep="12.10">
        <lanes/>
    </data>
    <data timestep="12.20">
        <lanes/>
    </data>
    <data timestep="12.30">
        <lanes/>
    </data>
    <data timestep="12.40">
        <lanes/>
    </data>
    <data timestep="12.50">
        <lanes/>
    </data>
    <data timestep="12.60">
        <lanes/>
    </data>
    <data timestep="12.70">
        <lanes/>
    </data>
    <data timestep="12.80">
        <lanes/>
    </data>
    <data timestep="12.90">
        <lanes/>
    </data>
    <data timestep="13.00">
        <lanes/>
    </data>
    <data timestep="13.10">
        <lanes/>
    </data>
    <data timestep="13.20">
        <lanes/>
    </data>
    <data timestep="13.30">
        <lanes/>
    </data>
    <data timestep="13.40">
        <lanes/>
    </data>
    <data timestep="13.50">
        <lanes/>
    </data>
    <data timestep="13.60">
        <lanes/>
    </data>
    <data timestep="13.70">
        <lanes/>
    </data>
    <data timestep="13.80">
        <lanes/>
    </data>
    <data timestep="13.90">
        <lanes/>
    </data>
    <data timestep="14.00">
        <lanes/>
    </data>
    <data timestep="14.10">
        <lanes/>
    </data>
    <data timestep="14.20">
        <lanes/>
    </data>
    <data timestep="14.30">
        <lanes/>
    </data>
    <data timestep="14.40">
        <lanes/>
    </data>
    <data timestep="14.50">
        <lanes/>
    </data>
    <data timestep="14.60">
        <lanes/>
    </data>
    <data timestep="14.70">
        <lanes/>
    </data>
    <data timestep="14.80">
        <lanes/>
    </data>
    <data timestep="14.90">
        <lanes/>
    </data>
    <data timestep="15.00">
        <lanes/>
    </data>
    <data timestep="15.10">
        <lanes/>
    </data>
    <data timestep="15.20">
        <lanes/>
    </data>
    <data timestep="15.30">
        <lanes/>
    </data>
    <data timestep="15.40">
        <lanes/>
    </data>
    <data timestep="15.50">
        <lanes/>
    </data>
    <data timestep="15.60">
        <lanes/>
    </data>
    <data timestep="15.70">
        <lanes/>
    </data>
    <data timestep="15.80">
        <lanes/>
    </data>
    <data timestep="15.90">
        <lanes/>
    </data>
    <data timestep="16.00">
        <lanes/>
    </data>
    <data timestep="16.10">
        <lanes/>
    </data>
    <data timestep="16.20">
        <lanes/>
    </data>
    <data timestep="16.30">
        <lanes/>
    </data>
    <data timestep="16.40">
        <lanes/>
    </data>
    <data timestep="16.50">
        <lanes/>
    </data>
    <data timestep="16.60">
        <lanes/>
    </data>
    <data timestep="16.70">
        <lanes/>
    </data>
    <data timestep="16.80">
        <lanes/>
    </data>
    <data timestep="16.90">
        <lanes>
            <lane id="-E2_2" queueing_time="0.00" queueing_length="0.00" queueing_length_experimental="6.08"/>
        </lanes>
    </data>
    <data timestep="17.00">
        <lanes>
            <lane id="-E2_2" queueing_time="0.00" queueing_length="0.00" queueing_length_experimental="6.02"/>
            <lane id="-E3_0" queueing_time="0.00" queueing_length="0.00" queueing_length_experimental="6.07"/>
        </lanes>
    </data>
    <data timestep="17.10">
        <lanes>
            <lane id="-E2_2" queueing_time="0.00" queueing_length="0.00" queueing_length_experimental="6.00"/>
            <lane id="-E3_0" queueing_time="0.00" queueing_length="0.00" queueing_length_experimental="6.02"/>
        </lanes>
    </data>
    <data timestep="17.20">
        <lanes>
            <lane id="-E2_2" queueing_time="0.10" queueing_length="6.00" queueing_length_experimental="6.00"/>
            <lane id="-E3_0" queueing_time="0.00" queueing_length="0.00" queueing_length_experimental="6.00"/>
        </lanes>
    </data>
    <data timestep="17.30">
        <lanes>
            <lane id="-E2_2" queueing_time="0.20" queueing_length="6.00" queueing_length_experimental="6.00"/>
            <lane id="-E3_0" queueing_time="0.10" queueing_length="6.00" queueing_length_experimental="6.00"/>
        </lanes>
    </data>
    <data timestep="17.40">
        <lanes>
            <lane id="-E2_2" queueing_time="0.30" queueing_length="6.00" queueing_length_experimental="6.00"/>
            <lane id="-E3_0" queueing_time="0.20" queueing_length="6.00" queueing_length_experimental="6.00"/>
        </lanes>
    </data>
    <data timestep="17.50">
        <lanes>
            <lane id="-E2_2" queueing_time="0.40" queueing_length="6.00" queueing_length_experimental="6.00"/>
            <lane id="-E3_0" queueing_time="0.30" queueing_length="6.00" queueing_length_experimental="6.00"/>
        </lanes>
    </data>
    <data timestep="17.60">
        <lanes>
            <lane id="-E2_2" queueing_time="0.50" queueing_length="6.00" queueing_length_experimental="6.00"/>
            <lane id="-E3_0" queueing_time="0.40" queueing_length="6.00" queueing_length_experimental="6.00"/>
        </lanes>
    </data>
    <data timestep="17.70">
        <lanes>
            <lane id="-E2_2" queueing_time="0.60" queueing_length="6.00" queueing_length_experimental="6.00"/>
            <lane id="-E3_0" queueing_time="0.50" queueing_length="6.00" queueing_length_experimental="6.00"/>
        </lanes>
    </data>
    <data timestep="17.80">
        <lanes>
            <lane id="-E2_2" queueing_time="0.70" queueing_length="6.00" queueing_length_experimental="6.00"/>
            <lane id="-E3_0" queueing_time="0.60" queueing_length="6.00" queueing_length_experimental="6.00"/>
        </lanes>
    </data>
    <data timestep="17.90">
        <lanes>
            <lane id="-E2_2" queueing_time="0.80" queueing_length="6.00" queueing_length_experimental="6.00"/>
            <lane id="-E3_0" queueing_time="0.70" queueing_length="6.00" queueing_length_experimental="6.00"/>
        </lanes>
    </data>
    <data timestep="18.00">
        <lanes>
            <lane id="-E2_2" queueing_time="0.90" queueing_length="6.00" queueing_length_experimental="6.00"/>
            <lane id="-E3_0" queueing_time="0.80" queueing_length="6.00" queueing_length_experimental="6.00"/>
        </lanes>
    </data>
    <data timestep="18.10">
        <lanes>
            <lane id="-E2_2" queueing_time="1.00" queueing_length="6.00" queueing_length_experimental="6.00"/>
            <lane id="-E3_0" queueing_time="0.90" queueing_length="6.00" queueing_length_experimental="6.00"/>
        </lanes>
    </data>
    <data timestep="18.20">
        <lanes>
            <lane id="-E2_2" queueing_time="1.10" queueing_length="6.00" queueing_length_experimental="6.00"/>
            <lane id="-E3_0" queueing_time="1.00" queueing_length="6.00" queueing_length_experimental="6.00"/>
        </lanes>
    </data>
    <data timestep="18.30">
        <lanes>
            <lane id="-E2_2" queueing_time="1.20" queueing_length="6.00" queueing_length_experimental="6.00"/>
            <lane id="-E3_0" queueing_time="1.10" queueing_length="6.00" queueing_length_experimental="6.00"/>
        </lanes>
    </data>
    <data timestep="18.40">
        <lanes>
            <lane id="-E1_2" queueing_time="0.00" queueing_length="0.00" queueing_length_experimental="6.13"/>
            <lane id="-E2_2" queueing_time="1.30" queueing_length="6.00" queueing_length_experimental="6.00"/>
            <lane id="-E3_0" queueing_time="1.20" queueing_length="6.00" queueing_length_experimental="6.00"/>
        </lanes>
    </data>
    <data timestep="18.50">
        <lanes>
            <lane id="-E1_2" queueing_time="0.00" queueing_length="0.00" queueing_length_experimental="6.05"/>
            <lane id="-E2_2" queueing_time="1.40" queueing_length="6.00" queueing_length_experimental="6.00"/>
            <lane id="-E3_0" queueing_time="1.30" queueing_length="6.00" queueing_length_experimental="6.00"/>
        </lanes>
    </data>
    <data timestep="18.60">
        <lanes>
            <lane id="-E1_2" queueing_time="0.00" queueing_length="0.00" queueing_length_experimental="6.00"/>
            <lane id="-E2_2" queueing_time="1.50" queueing_length="6.00" queueing_length_experimental="6.00"/>
            <lane id="-E3_0" queueing_time="1.40" queueing_length="6.00" queueing_length_experimental="6.00"/>
        </lanes>
    </data>
    <data timestep="18.70">
        <lanes>
            <lane id="-E1_2" queueing_time="0.10" queueing_length="6.00" queueing_length_experimental="6.00"/>
            <lane id="-E2_2" queueing_time="1.60" queueing_length="6.00" queueing_length_experimental="6.00"/>
            <lane id="-E3_0" queueing_time="1.50" queueing_length="6.00" queueing_length_experimental="6.00"/>
        </lanes>
    </data>
    <data timestep="18.80">
        <lanes>
            <lane id="-E1_2" queueing_time="0.20" queueing_length="6.00" queueing_length_experimental="6.00"/>
            <lane id="-E2_2" queueing_time="1.70" queueing_length="6.00" queueing_length_experimental="6.00"/>
            <lane id="-E3_0" queueing_time="1.60" queueing_length="6.00" queueing_length_experimental="6.00"/>
        </lanes>
    </data>
    <data timestep="18.90">
        <lanes>
            <lane id="-E1_2" queueing_time="0.30" queueing_length="6.00" queueing_length_experimental="6.00"/>
            <lane id="-E2_2" queueing_time="1.80" queueing_length="6.00" queueing_length_experimental="6.00"/>
            <lane id="-E3_0" queueing_time="1.70" queueing_length="6.00" queueing_length_experimental="6.00"/>
        </lanes>
    </data>
    <data timestep="19.00">
        <lanes>
            <lane id="-E1_2" queueing_time="0.40" queueing_length="6.00" queueing_length_experimental="6.00"/>
            <lane id="-E2_2" queueing_time="1.90" queueing_length="6.00" queueing_length_experimental="6.00"/>
            <lane id="-E3_0" queueing_time="1.80" queueing_length="6.00" queueing_length_experimental="6.00"/>
        </lanes>
    </data>
    <data timestep="19.10">
        <lanes>
            <lane id="-E1_2" queueing_time="0.50" queueing_length="6.00" queueing_length_experimental="6.00"/>
            <lane id="-E2_2" queueing_time="2.00" queueing_length="6.00" queueing_length_experimental="6.00"/>
            <lane id="-E3_0" queueing_time="1.90" queueing_length="6.00" queueing_length_experimental="6.00"/>
        </lanes>
    </data>
    <data timestep="19.20">
        <lanes>
            <lane id="-E1_2" queueing_time="0.60" queueing_length="6.00" queueing_length_experimental="6.00"/>
            <lane id="-E2_2" queueing_time="2.10" queueing_length="6.00" queueing_length_experimental="6.00"/>
            <lane id="-E3_0" queueing_time="2.00" queueing_length="6.00" queueing_length_experimental="6.00"/>
        </lanes>
    </data>
    <data timestep="19.30">
        <lanes>
            <lane id="-E1_2" queueing_time="0.70" queueing_length="6.00" queueing_length_experimental="6.00"/>
            <lane id="-E2_2" queueing_time="2.20" queueing_length="6.00" queueing_length_experimental="6.00"/>
            <lane id="-E3_0" queueing_time="2.10" queueing_length="6.00" queueing_length_experimental="6.00"/>
        </lanes>
    </data>
    <data timestep="19.40">
        <lanes>
            <lane id="-E1_2" queueing_time="0.80" queueing_length="6.00" queueing_length_experimental="6.00"/>
            <lane id="-E2_2" queueing_time="2.30" queueing_length="6.00" queueing_length_experimental="6.00"/>
            <lane id="-E3_0" queueing_time="2.20" queueing_length="6.00" queueing_length_experimental="6.00"/>
        </lanes>
    </data>
    <data timestep="19.50">
        <lanes>
            <lane id="-E1_2" queueing_time="0.90" queueing_length="6.00" queueing_length_experimental="6.00"/>
            <lane id="-E2_2" queueing_time="2.40" queueing_length="6.00" queueing_length_experimental="6.00"/>
            <lane id="-E3_0" queueing_time="2.30" queueing_length="6.00" queueing_length_experimental="6.00"/>
        </lanes>
    </data>
    <data timestep="19.60">
        <lanes>
            <lane id="-E1_2" queueing_time="1.00" queueing_length="6.00" queueing_length_experimental="6.00"/>
            <lane id="-E2_2" queueing_time="2.50" queueing_length="6.00" queueing_length_experimental="6.00"/>
            <lane id="-E3_0" queueing_time="2.40" queueing_length="6.00" queueing_length_experimental="6.00"/>
        </lanes>
    </data>
    <data timestep="19.70">
        <lanes>
            <lane id="-E1_2" queueing_time="1.10" queueing_length="6.00" queueing_length_experimental="6.00"/>
            <lane id="-E2_2" queueing_time="2.60" queueing_length="6.00" queueing_length_experimental="6.00"/>
            <lane id="-E3_0" queueing_time="2.50" queueing_length="6.00" queueing_length_experimental="6.00"/>
        </lanes>
    </data>
    <data timestep="19.80">
        <lanes>
            <lane id="-E1_2" queueing_time="1.20" queueing_length="6.00" queueing_length_experimental="6.00"/>
            <lane id="-E2_2" queueing_time="2.70" queueing_length="6.00" queueing_length_experimental="6.00"/>
            <lane id="-E3_0" queueing_time="2.60" queueing_length="6.00" queueing_length_experimental="6.00"/>
        </lanes>
    </data>
    <data timestep="19.90">
        <lanes>
            <lane id="-E1_2" queueing_time="1.30" queueing_length="6.00" queueing_length_experimental="6.00"/>
            <lane id="-E2_2" queueing_time="2.80" queueing_length="6.00" queueing_length_experimental="6.00"/>
            <lane id="-E3_0" queueing_time="2.70" queueing_length="6.00" queueing_length_experimental="6.00"/>
        </lanes>
    </data>
    <data timestep="20.00">
        <lanes>
            <lane id="-E1_2" queueing_time="1.40" queueing_length="6.00" queueing_length_experimental="6.00"/>
            <lane id="-E2_2" queueing_time="2.90" queueing_length="6.00" queueing_length_experimental="6.00"/>
            <lane id="-E3_0" queueing_time="2.80" queueing_length="6.00" queueing_length_experimental="6.00"/>
        </lanes>
    </data>
    <data timestep="20.10">
        <lanes>
            <lane id="-E1_2" queueing_time="1.50" queueing_length="6.00" queueing_length_experimental="6.00"/>
            <lane id="-E2_2" queueing_time="3.00" queueing_length="6.00" queueing_length_experimental="6.00"/>
            <lane id="-E3_0" queueing_time="2.90" queueing_length="6.00" queueing_length_experimental="6.00"/>
        </lanes>
    </data>
    <data timestep="20.20">
        <lanes>
            <lane id="-E1_2" queueing_time="1.60" queueing_length="6.00" queueing_length_experimental="6.00"/>
            <lane id="-E2_2" queueing_time="3.10" queueing_length="6.00" queueing_length_experimental="6.00"/>
            <lane id="-E3_0" queueing_time="3.00" queueing_length="6.00" queueing_length_experimental="6.00"/>
        </lanes>
    </data>
    <data timestep="20.30">
        <lanes>
            <lane id="-E1_2" queueing_time="1.70" queueing_length="6.00" queueing_length_experimental="6.00"/>
            <lane id="-E2_2" queueing_time="3.20" queueing_length="6.00" queueing_length_experimental="6.00"/>
            <lane id="-E3_0" queueing_time="3.10" queueing_length="6.00" queueing_length_experimental="6.00"/>
        </lanes>
    </data>
    <data timestep="20.40">
        <lanes>
            <lane id="-E1_2" queueing_time="1.80" queueing_length="6.00" queueing_length_experimental="6.00"/>
            <lane id="-E2_2" queueing_time="3.30" queueing_length="6.00" queueing_length_experimental="6.00"/>
            <lane id="-E3_0" queueing_time="3.20" queueing_length="6.00" queueing_length_experimental="6.00"/>
        </lanes>
    </data>
    <data timestep="20.50">
        <lanes>
            <lane id="-E1_2" queueing_time="1.90" queueing_length="6.00" queueing_length_experimental="6.00"/>
            <lane id="-E2_2" queueing_time="3.40" queueing_length="6.00" queueing_length_experimental="6.00"/>
            <lane id="-E3_0" queueing_time="3.30" queueing_length="6.00" queueing_length_experimental="6.00"/>
        </lanes>
    </data>
    <data timestep="20.60">
        <lanes>
            <lane id="-E1_2" queueing_time="2.00" queueing_length="6.00" queueing_length_experimental="6.00"/>
            <lane id="-E2_2" queueing_time="3.50" queueing_length="6.00" queueing_length_experimental="6.00"/>
            <lane id="-E3_0" queueing_time="3.40" queueing_length="6.00" queueing_length_experimental="6.00"/>
        </lanes>
    </data>
    <data timestep="20.70">
        <lanes>
            <lane id="-E1_2" queueing_time="2.10" queueing_length="6.00" queueing_length_experimental="6.00"/>
            <lane id="-E2_2" queueing_time="3.60" queueing_length="6.00" queueing_length_experimental="6.00"/>
            <lane id="-E3_0" queueing_time="3.50" queueing_length="6.00" queueing_length_experimental="6.00"/>
        </lanes>
    </data>
    <data timestep="20.80">
        <lanes>
            <lane id="-E1_2" queueing_time="2.20" queueing_length="6.00" queueing_length_experimental="6.00"/>
            <lane id="-E2_2" queueing_time="3.70" queueing_length="6.00" queueing_length_experimental="6.00"/>
            <lane id="-E3_0" queueing_time="3.60" queueing_length="6.00" queueing_length_experimental="6.00"/>
        </lanes>
    </data>
    <data timestep="20.90">
        <lanes>
            <lane id="-E1_2" queueing_time="2.30" queueing_length="6.00" queueing_length_experimental="6.00"/>
            <lane id="-E2_2" queueing_time="3.80" queueing_length="6.00" queueing_length_experimental="6.00"/>
            <lane id="-E3_0" queueing_time="3.70" queueing_length="6.00" queueing_length_experimental="6.00"/>
        </lanes>
    </data>
    <data timestep="21.00">
        <lanes>
            <lane id="-E1_2" queueing_time="2.40" queueing_length="6.00" queueing_length_experimental="6.00"/>
            <lane id="-E2_2" queueing_time="3.90" queueing_length="6.00" queueing_length_experimental="6.00"/>
            <lane id="-E3_0" queueing_time="3.80" queueing_length="6.00" queueing_length_experimental="6.00"/>
        </lanes>
    </data>
    <data timestep="21.10">
        <lanes>
            <lane id="-E1_2" queueing_time="2.50" queueing_length="6.00" queueing_length_experimental="6.00"/>
            <lane id="-E2_2" queueing_time="4.00" queueing_length="6.00" queueing_length_experimental="6.00"/>
            <lane id="-E3_0" queueing_time="3.90" queueing_length="6.00" queueing_length_experimental="6.00"/>
        </lanes>
    </data>
    <data timestep="21.20">
        <lanes>
            <lane id="-E1_2" queueing_time="2.60" queueing_length="6.00" queueing_length_experimental="6.00"/>
            <lane id="-E2_2" queueing_time="4.10" queueing_length="6.00" queueing_length_experimental="6.00"/>
            <lane id="-E3_0" queueing_time="4.00" queueing_length="6.00" queueing_length_experimental="6.00"/>
        </lanes>
    </data>
    <data timestep="21.30">
        <lanes>
            <lane id="-E1_2" queueing_time="2.70" queueing_length="6.00" queueing_length_experimental="6.00"/>
            <lane id="-E2_2" queueing_time="4.20" queueing_length="6.00" queueing_length_experimental="6.00"/>
            <lane id="-E3_0" queueing_time="4.10" queueing_length="6.00" queueing_length_experimental="6.00"/>
        </lanes>
    </data>
    <data timestep="21.40">
        <lanes>
            <lane id="-E1_2" queueing_time="2.80" queueing_length="6.00" queueing_length_experimental="6.00"/>
            <lane id="-E2_2" queueing_time="4.30" queueing_length="6.00" queueing_length_experimental="6.00"/>
            <lane id="-E3_0" queueing_time="4.20" queueing_length="6.00" queueing_length_experimental="6.00"/>
        </lanes>
    </data>
    <data timestep="21.50">
        <lanes>
            <lane id="-E1_2" queueing_time="2.90" queueing_length="6.00" queueing_length_experimental="6.00"/>
            <lane id="-E2_2" queueing_time="4.40" queueing_length="6.00" queueing_length_experimental="6.00"/>
            <lane id="-E3_0" queueing_time="4.30" queueing_length="6.00" queueing_length_experimental="6.00"/>
        </lanes>
    </data>
    <data timestep="21.60">
        <lanes>
            <lane id="-E1_2" queueing_time="3.00" queueing_length="6.00" queueing_length_experimental="6.00"/>
            <lane id="-E2_2" queueing_time="4.50" queueing_length="6.00" queueing_length_experimental="6.00"/>
            <lane id="-E3_0" queueing_time="4.40" queueing_length="6.00" queueing_length_experimental="6.00"/>
        </lanes>
    </data>
    <data timestep="21.70">
        <lanes>
            <lane id="-E1_2" queueing_time="3.10" queueing_length="6.00" queueing_length_experimental="6.00"/>
            <lane id="-E2_2" queueing_time="4.60" queueing_length="6.00" queueing_length_experimental="6.00"/>
            <lane id="-E3_0" queueing_time="4.50" queueing_length="6.00" queueing_length_experimental="6.00"/>
        </lanes>
    </data>
    <data timestep="21.80">
        <lanes>
            <lane id="-E1_2" queueing_time="3.20" queueing_length="6.00" queueing_length_experimental="6.00"/>
            <lane id="-E2_2" queueing_time="4.70" queueing_length="6.00" queueing_length_experimental="6.00"/>
            <lane id="-E3_0" queueing_time="4.60" queueing_length="6.00" queueing_length_experimental="6.00"/>
        </lanes>
    </data>
    <data timestep="21.90">
        <lanes>
            <lane id="-E1_2" queueing_time="3.30" queueing_length="6.00" queueing_length_experimental="6.00"/>
            <lane id="-E2_2" queueing_time="4.80" queueing_length="6.00" queueing_length_experimental="6.00"/>
            <lane id="-E3_0" queueing_time="4.70" queueing_length="6.00" queueing_length_experimental="6.00"/>
        </lanes>
    </data>
    <data timestep="22.00">
        <lanes>
            <lane id="-E1_2" queueing_time="3.40" queueing_length="6.00" queueing_length_experimental="6.00"/>
            <lane id="-E2_2" queueing_time="4.90" queueing_length="6.00" queueing_length_experimental="6.00"/>