<?xml version="1.0" encoding="UTF-8"?>

<!-- generated on 2025-02-12 00:09:14 by Eclipse SUMO netedit Version 1.18.0
-->

<configuration xmlns:xsi="http://www.w3.org/2001/XMLSchema-instance" xsi:noNamespaceSchemaLocation="http://sumo.dlr.de/xsd/neteditConfiguration.xsd">

    <input>
        <net-file value="demo_6.net.xml"/>
		<route-files value="demo_6.rou.xml"/>
		
    </input>
	
	<output>
		<tripinfo-output value="tripinfo.xml"/>
		<fcd-output value="traj.xml"/>  <!-- 车辆轨迹输出 -->
		<summary-output value="stats.xml"/>  <!-- 统计摘要输出 -->
	</output>

</configuration>
